ITEM: TIMESTEP
933
ITEM: NUMBER OF ATOMS
19560
ITEM: BOX BOUNDS pp pp pp
-0.00609589 199.994
0.00183105 200.002
-0.0177002 1999.98
ITEM: ATOMS id type xu yu zu
 1 1 14.9005 126.335 9.12189
 2 1 17.6326 124.062 7.75337
 3 1 19.8152 125.728 10.407
 4 1 19.2316 128.639 12.7697
 5 1 16.1906 130.955 13.1955
 6 1 13.4245 132.355 15.5675
 7 1 10.5122 131.491 17.8931
 8 1 9.12254 132.162 21.3878
 9 1 9.57334 135.916 21.7848
 10 1 10.2204 136.528 25.4605
 11 1 11.2586 140.151 25.6035
 12 1 14.6686 141.521 24.3959
 13 1 16.3704 143.707 21.6954
 14 1 19.519 144.153 19.6183
 15 1 22.6934 146.184 19.6888
 16 1 24.1929 147.929 16.7036
 17 1 25.9627 145.784 14.0293
 18 1 25.5757 142.089 13.1571
 19 1 25.0596 139.763 10.1783
 20 1 23.8599 136.319 9.19461
 21 1 22.8524 134.998 5.78475
 22 1 19.6207 133.411 4.50396
 23 1 18.9123 131.248 7.61723
 24 1 15.715 133.116 8.2941
 25 1 13.1137 135.258 6.64854
 26 1 15.2841 138.27 5.80645
 27 1 17.8767 138.632 3.11327
 28 1 15.5347 138.318 0.0770092
 29 1 14.7405 136.373 1996.88
 30 1 12.8288 133.912 1999
 31 1 9.2623 134.889 1999.92
 32 1 6.99289 132.599 2.09427
 33 1 9.30285 130.724 4.43387
 34 1 9.54237 128.616 1.3988
 35 1 12.6639 127.118 1999.7
 36 1 15.3892 124.8 1998.22
 37 1 18.8298 126.24 1998.9
 38 1 21.1396 129.171 1999.83
 39 1 23.9901 127.303 1.54877
 40 1 25.4522 123.989 2.35987
 41 1 24.8948 120.14 2.47478
 42 1 28.4112 118.921 3.37052
 43 1 31.6597 117.538 2.07543
 44 1 30.2992 116.603 1998.67
 45 1 30.995 114.112 1995.85
 46 1 27.3931 113.65 1994.82
 47 1 26.5098 112.023 1998.24
 48 1 28.6219 109.54 0.111341
 49 1 32.2202 108.894 0.867367
 50 1 35.0186 107.31 1998.8
 51 1 36.2172 109.471 1995.99
 52 1 36.1958 112.649 1993.87
 53 1 39.0838 113.863 1996.07
 54 1 36.6947 114.961 1998.71
 55 1 38.2148 115.413 2.32816
 56 1 40.6288 112.739 3.52693
 57 1 43.7462 113.276 1.57452
 58 1 47.4461 112.876 2.32792
 59 1 50.317 110.793 0.882149
 60 1 50.9596 108.984 1997.46
 61 1 51.9973 109.701 1993.83
 62 1 54.8611 110.083 1991.38
 63 1 55.8406 113.035 1989.36
 64 1 55.0116 115.625 1991.99
 65 1 54.7785 118.447 1994.37
 66 1 53.1194 121.392 1992.85
 67 1 54.2117 124.074 1995.31
 68 1 54.9679 125.863 1998.54
 69 1 57.6771 124.46 0.663519
 70 1 57.0994 120.734 1.51277
 71 1 58.1466 117.98 3.87335
 72 1 59.6078 114.683 4.709
 73 1 60.3086 111.618 6.80637
 74 1 59.8194 107.894 6.50215
 75 1 57.0914 106.858 4.17519
 76 1 58.2431 107.428 0.498295
 77 1 62.0835 107.349 0.436783
 78 1 64.702 110.069 0.542402
 79 1 63.8641 113.376 2.16556
 80 1 61.7145 115.169 1999.65
 81 1 60.0114 112.233 1997.95
 82 1 61.0559 110.767 1994.64
 83 1 63.7013 112.545 1992.58
 84 1 63.3257 115.93 1990.95
 85 1 64.7356 119.25 1989.53
 86 1 62.058 120.912 1987.58
 87 1 63.9153 121.207 1984.37
 88 1 63.0949 118.378 1982.08
 89 1 59.7657 118.551 1980.39
 90 1 57.9445 118.668 1983.8
 91 1 55.0809 118.334 1986.44
 92 1 51.9181 117.503 1988.38
 93 1 49.6878 114.941 1990.05
 94 1 47.3338 113.18 1987.57
 95 1 44.7833 111.188 1989.45
 96 1 42.8399 109.961 1992.43
 97 1 44.3309 110.914 1995.69
 98 1 44.9289 108.242 1998.39
 99 1 42.4105 105.631 1997.22
 100 1 40.487 103.745 1994.61
 101 1 41.7982 101.87 1991.57
 102 1 41.2165 100.175 1988.2
 103 1 41.3747 96.4045 1987.82
 104 1 42.5975 95.8582 1991.41
 105 1 43.7928 94.3906 1994.72
 106 1 41.4106 93.888 1997.61
 107 1 38.3843 95.9727 1998.12
 108 1 35.3038 96.8084 1996.07
 109 1 33.3364 99.6808 1997.42
 110 1 32.4028 102.781 1999.45
 111 1 31.06 104.827 2.35867
 112 1 32.6549 106.148 5.4853
 113 1 30.4415 109.197 6.35123
 114 1 32.9321 111.938 5.33032
 115 1 34.2276 114.446 7.90429
 116 1 33.9033 118.135 8.89301
 117 1 30.2001 117.826 8.28767
 118 1 27.5792 120.105 9.72509
 119 1 25.1629 117.632 11.3833
 120 1 22.4717 115.75 9.56964
 121 1 20.5274 112.782 8.32415
 122 1 16.923 112.983 7.20143
 123 1 16.7753 112.886 3.39246
 124 1 19.9239 110.904 2.36154
 125 1 21.9958 108.793 4.86326
 126 1 23.5637 105.92 6.85048
 127 1 20.5781 104.029 8.46887
 128 1 19.786 102.513 5.12195
 129 1 20.9233 100.051 2.55585
 130 1 19.8898 96.3658 2.22087
 131 1 22.4973 94.8011 4.46677
 132 1 26.0616 95.1295 5.78904
 133 1 27.3317 97.5138 3.10373
 134 1 25.9415 98.9321 1999.84
 135 1 23.8485 97.8652 1996.87
 136 1 21.723 94.9101 1995.54
 137 1 23.8097 92.3033 1997.57
 138 1 24.1381 88.8708 1995.92
 139 1 25.325 88.4495 1992.36
 140 1 27.9865 88.5581 1989.65
 141 1 29.7503 85.3615 1988.65
 142 1 30.674 86.1268 1985.06
 143 1 28.3137 84.4313 1982.71
 144 1 26.7795 86.3907 1979.87
 145 1 28.281 88.2394 1976.89
 146 1 28.1507 85.8643 1974.07
 147 1 25.6036 85.0358 1971.33
 148 1 27.3326 86.8849 1968.45
 149 1 27.8295 86.9093 1964.6
 150 1 24.5685 86.0375 1962.79
 151 1 21.3662 86.2251 1960.75
 152 1 18.345 85.514 1958.44
 153 1 14.8485 85.8606 1960.17
 154 1 11.2933 85.0467 1961.06
 155 1 10.1341 81.4474 1960.91
 156 1 13.2669 80.0949 1959.19
 157 1 16.166 77.7888 1960.04
 158 1 16.4135 80.0902 1962.94
 159 1 19.9648 81.1378 1963.55
 160 1 22.6032 79.1568 1961.47
 161 1 24.8159 76.8728 1963.44
 162 1 26.9108 73.9567 1962.08
 163 1 25.8215 70.989 1960.05
 164 1 39.4999 12.8366 97.6741
 165 1 38.2477 13.3742 94.2013
 166 1 37.746 15.621 91.2728
 167 1 39.8568 18.6039 90.0865
 168 1 43.3242 18.4062 91.6099
 169 1 44.8046 21.6627 90.4541
 170 1 46.068 25.2822 89.9742
 171 1 47.5074 28.8285 90.7848
 172 1 45.707 32.0176 89.4909
 173 1 42.1852 31.4525 87.9557
 174 1 42.7968 28.2855 86.046
 175 1 44.3437 25.6574 83.8156
 176 1 44.9393 22.1671 82.3162
 177 1 46.2264 18.5532 82.0992
 178 1 42.7781 17.5185 83.271
 179 1 40.2184 17.0632 80.4608
 180 1 37.5105 14.4399 80.7998
 181 1 37.9222 10.658 80.3952
 182 1 39.543 9.02959 77.3954
 183 1 38.4122 5.37331 77.5032
 184 1 35.8552 6.2631 74.7278
 185 1 33.835 6.7439 71.6083
 186 1 32.0986 6.25768 68.248
 187 1 31.5741 2.6595 69.2363
 188 1 30.3325 199.178 69.5417
 189 1 28.6015 195.885 68.9154
 190 1 26.8428 193.818 66.2541
 191 1 27.1398 195.003 62.5827
 192 1 28.1135 193.394 59.2284
 193 1 27.817 189.68 58.4805
 194 1 30.2427 188.06 56.0698
 195 1 32.4551 185.457 57.7695
 196 1 36.0862 184.587 57.0137
 197 1 39.6042 184.928 58.4984
 198 1 41.9969 187.712 57.4682
 199 1 45.7206 187.833 58.2871
 200 1 49.1639 186.985 56.9026
 201 1 50.4667 187.77 53.3297
 202 1 47.099 187.574 51.4567
 203 1 44.1963 187.484 49.0351
 204 1 40.9167 185.392 48.6174
 205 1 38.0274 185.649 46.1655
 206 1 35.6616 183.117 44.6022
 207 1 38.5687 181.206 43.1468
 208 1 40.3062 177.831 42.4497
 209 1 40.0413 174.057 41.9707
 210 1 43.2424 174.086 40.0047
 211 1 41.9208 173.722 36.5925
 212 1 38.2822 172.766 36.4921
 213 1 34.8333 174.453 37.1361
 214 1 34.7509 170.941 38.681
 215 1 33.7401 167.714 40.5219
 216 1 31.9899 170.012 42.9769
 217 1 29.7442 168.39 45.6953
 218 1 26.1197 167.76 46.3519
 219 1 27.2248 166.63 49.8669
 220 1 28.3003 163.76 52.0787
 221 1 31.07 162.808 54.4348
 222 1 34.0827 161.958 52.2935
 223 1 37.4268 163.897 51.8939
 224 1 38.2239 160.971 49.557
 225 1 41.6782 160.651 47.9481
 226 1 43.1459 164.127 47.2689
 227 1 45.9954 163.889 49.9544
 228 1 46.4494 160.362 51.4677
 229 1 47.6127 160.489 55.0678
 230 1 47.5223 163.054 57.8661
 231 1 47.1181 164.757 61.2156
 232 1 43.8023 164.871 63.0763
 233 1 43.1731 161.497 64.7721
 234 1 43.4541 162.003 68.5706
 235 1 45.1714 162.972 71.7339
 236 1 44.4275 166.719 71.5821
 237 1 45.0909 168.138 75.0558
 238 1 46.8167 170.941 76.8144
 239 1 45.2919 174.344 77.8079
 240 1 45 177.397 75.3908
 241 1 43.5683 179.943 77.8353
 242 1 43.022 183.491 76.5457
 243 1 39.8138 183.463 78.6021
 244 1 39.8494 183.971 82.4001
 245 1 43.256 185.52 82.9995
 246 1 45.7998 185.218 85.8319
 247 1 44.9547 181.815 87.3201
 248 1 44.1404 181.639 91.0444
 249 1 42.2914 184.82 90.7505
 250 1 44.6389 187.812 91.1331
 251 1 45.0964 191.537 90.6019
 252 1 47.5511 191.544 87.6348
 253 1 50.3722 191.724 85.1431
 254 1 53.0637 189.542 83.5543
 255 1 51.4794 189.841 80.0512
 256 1 53.1888 187.127 78.052
 257 1 52.1034 184.303 75.5439
 258 1 50.5387 181.732 77.8916
 259 1 49.3528 178.77 79.8976
 260 1 51.1976 175.48 80.5619
 261 1 54.4776 173.862 81.4636
 262 1 54.8598 174.708 85.2606
 263 1 52.3269 173.224 87.7314
 264 1 48.5838 172.458 87.7368
 265 1 47.2218 169.187 89.0567
 266 1 45.2555 170.511 92.0763
 267 1 47.4829 172.236 94.5713
 268 1 51.1854 173.247 94.5971
 269 1 52.2718 176.559 96.0071
 270 1 54.0384 179.549 94.4802
 271 1 52.16 181.532 97.109
 272 1 48.7248 182.99 96.1877
 273 1 46.2936 180.748 98.158
 274 1 43.7844 178.607 100.037
 275 1 41.963 175.299 100.205
 276 1 42.1098 172.079 102.208
 277 1 42.311 168.54 103.63
 278 1 41.4266 168.284 107.273
 279 1 44.509 169.333 109.085
 280 1 46.3906 166.045 109.538
 281 1 49.7538 166.098 111.215
 282 1 48.7412 164.695 114.657
 283 1 48.6442 166.772 117.744
 284 1 45.7944 168.985 119.029
 285 1 42.1831 170.035 118.402
 286 1 42.4731 171.544 122.052
 287 1 39.5047 172.684 124.147
 288 1 40.2546 169.513 126.031
 289 1 41.8167 166.104 125.466
 290 1 44.4371 164.472 127.707
 291 1 47.5711 162.475 128.371
 292 1 50.895 162.795 126.488
 293 1 50.8573 162.207 122.755
 294 1 48.3702 159.425 122.231
 295 1 45.7574 158.072 124.537
 296 1 42.1259 158.133 123.248
 297 1 41.7113 161.226 120.992
 298 1 39.4363 164.014 119.427
 299 1 38.8772 164.331 115.632
 300 1 41.1701 161.568 114.663
 301 1 43.2302 158.379 114.331
 302 1 46.5157 159.22 112.566
 303 1 50.2558 159.062 113.104
 304 1 50.8226 156.478 115.72
 305 1 48.0991 153.812 116.058
 306 1 47.541 151.2 113.467
 307 1 50.2822 150.404 110.83
 308 1 53.7929 149.209 110.117
 309 1 54.7459 151.775 107.452
 310 1 53.3852 151.48 103.926
 311 1 52.1238 152.987 100.695
 312 1 53.1239 154.979 97.6236
 313 1 56.1636 154.056 95.4596
 314 1 56.0023 154.901 91.8519
 315 1 55.61 158.638 91.1637
 316 1 54.4112 161.833 92.8179
 317 1 57.9768 162.735 93.8435
 318 1 61.5421 161.962 94.9318
 319 1 61.119 164.895 97.4715
 320 1 62.53 167.978 95.8008
 321 1 60.9465 171.038 94.1469
 322 1 60.5595 171.791 90.417
 323 1 63.7357 170.86 88.4659
 324 1 65.5706 173.772 86.8161
 325 1 63.4756 175.981 84.6169
 326 1 62.9628 179.404 85.97
 327 1 92.1356 21.6492 23.6976
 328 1 89.645 20.3187 26.2225
 329 1 87.1672 17.6576 24.7223
 330 1 83.8204 17.9285 26.444
 331 1 81.0397 16.049 28.2326
 332 1 81.303 17.778 31.5819
 333 1 81.4314 20.9897 33.7033
 334 1 81.7654 19.8745 37.23
 335 1 85.1213 21.0983 38.4886
 336 1 87.8324 19.0385 36.7491
 337 1 88.5191 17.8329 33.1962
 338 1 91.5647 16.5999 31.4193
 339 1 93.5863 19.9077 31.3888
 340 1 93.8776 23.7208 31.0769
 341 1 91.6061 25.0407 33.7999
 342 1 92.7099 28.1136 35.6529
 343 1 92.4699 28.9511 39.283
 344 1 90.9985 28.1866 42.7816
 345 1 87.2685 27.9094 43.4182
 346 1 83.9351 28.0816 41.757
 347 1 80.0643 27.7508 41.8777
 348 1 78.7801 31.274 41.9221
 349 1 81.1355 33.8935 43.5946
 350 1 80.1232 37.401 42.6419
 351 1 80.8459 39.9802 39.9434
 352 1 78.0729 41.1465 37.5489
 353 1 74.2557 41.0414 38.2211
 354 1 71.7849 39.0598 36.215
 355 1 71.1727 35.5921 34.9163
 356 1 68.4168 35.3963 32.2476
 357 1 66.2853 32.6341 33.6197
 358 1 62.737 31.2104 33.9543
 359 1 59.0018 31.2944 33.2316
 360 1 58.0779 31.0034 36.8393
 361 1 59.3295 28.0672 38.7856
 362 1 61.1537 25.1704 37.0277
 363 1 62.562 23.729 33.8199
 364 1 65.4796 23.4129 31.3315
 365 1 64.9626 24.6563 27.7348
 366 1 68.6137 25.6743 26.7924
 367 1 71.9551 24.63 28.5165
 368 1 73.6018 28.1014 28.2971
 369 1 76.9697 29.5646 29.0548
 370 1 76.3989 28.2444 32.528
 371 1 76.721 25.3268 34.9497
 372 1 76.3104 24.2441 38.701
 373 1 74.7556 26.5904 41.4077
 374 1 73.1704 30.0895 41.738
 375 1 72.2861 32.3521 44.6978
 376 1 70.6953 35.3117 42.892
 377 1 67.5259 33.9976 41.3495
 378 1 63.9707 35.0641 40.9548
 379 1 62.3497 35.2314 37.5741
 380 1 59.7763 36.6346 35.2688
 381 1 59.6688 38.9828 32.2103
 382 1 62.6451 41.1169 33.0243
 383 1 65.864 40.0292 34.6976
 384 1 65.7265 41.8539 38.0558
 385 1 66.2079 40.1968 41.3856
 386 1 68.2403 40.3392 44.6276
 387 1 70.1773 43.6046 45.1848
 388 1 68.4005 46.8263 45.7923
 389 1 70.234 49.9551 44.711
 390 1 71.8824 52.6642 46.9715
 391 1 68.4701 54.5307 47.3145
 392 1 66.1186 54.6556 44.3905
 393 1 68.4413 53.994 41.3176
 394 1 69.4047 56.0937 38.3096
 395 1 68.662 57.9516 35.1628
 396 1 70.5233 55.01 33.5758
 397 1 67.8678 52.3269 33.0586
 398 1 64.9924 53.371 35.2384
 399 1 61.1976 53.0189 34.5011
 400 1 58.0001 54.8967 35.1584
 401 1 57.2264 57.1843 38.1231
 402 1 54.3919 58.1999 35.7978
 403 1 51.0791 58.6668 37.6371
 404 1 48.1114 57.9383 39.866
 405 1 44.5806 58.8151 40.9788
 406 1 41.7101 61.0248 39.68
 407 1 39.509 62.7543 42.2577
 408 1 36.7364 60.9633 44.1423
 409 1 34.4708 63.4567 46.1072
 410 1 33.4378 64.4122 42.5656
 411 1 29.8269 64.2445 41.3178
 412 1 27.4191 64.8638 44.1655
 413 1 24.2441 63.2492 45.4394
 414 1 24.315 61.8926 49.0944
 415 1 20.8832 63.0033 50.1503
 416 1 20.1357 66.6292 50.7634
 417 1 22.675 68.3402 48.4823
 418 1 24.0384 71.6592 49.7703
 419 1 26.7625 72.8214 52.3058
 420 1 27.48 75.9502 54.3648
 421 1 25.2961 78.005 56.7307
 422 1 22.1113 77.4325 58.6581
 423 1 21.1159 73.9515 59.7026
 424 1 24.8507 73.4955 60.3012
 425 1 25.3517 76.3267 62.6976
 426 1 24.5339 79.737 64.1538
 427 1 21.9388 81.6782 66.1631
 428 1 19.0885 81.8386 68.7106
 429 1 15.6413 80.6484 69.5068
 430 1 13.8676 80.2528 72.8906
 431 1 11.3754 82.5701 71.3181
 432 1 8.10773 80.6092 70.7425
 433 1 6.5897 77.7816 72.7507
 434 1 6.53086 77.7635 76.5221
 435 1 8.74445 79.5678 78.9085
 436 1 7.30319 77.3944 81.7641
 437 1 6.44124 74.1897 83.6345
 438 1 9.64427 72.4235 84.6245
 439 1 12.8544 74.1714 83.5293
 440 1 14.5767 70.9413 82.529
 441 1 13.7939 69.4745 85.9809
 442 1 17.5973 69.2297 85.8848
 443 1 20.759 68.8724 88.029
 444 1 23.0181 70.6457 90.5138
 445 1 20.5631 73.5034 91.1643
 446 1 18.567 73.9277 87.8687
 447 1 16.285 76.7451 88.761
 448 1 16.479 80.1042 87.1397
 449 1 12.7675 80.1803 86.389
 450 1 10.4997 83.0235 85.4724
 451 1 10.3277 86.6352 84.3101
 452 1 6.67984 87.3468 83.739
 453 1 3.31614 89.039 84.2617
 454 1 1.24507 88.8808 87.499
 455 1 4.62744 88.5596 89.0938
 456 1 3.96071 84.8903 89.9735
 457 1 7.12135 82.7996 90.1228
 458 1 9.99589 81.5644 92.2356
 459 1 12.5882 79.1656 93.4937
 460 1 15.501 80.8516 95.3522
 461 1 18.5074 78.7544 96.3798
 462 1 22.2888 78.8024 95.8828
 463 1 22.5813 78.7102 99.6398
 464 1 22.5677 76.0425 102.424
 465 1 18.9874 74.888 101.668
 466 1 15.8851 75.3784 103.993
 467 1 12.6663 74.4944 105.677
 468 1 12.2838 70.8175 106.556
 469 1 10.0703 68.3344 108.432
 470 1 7.499 69.1498 105.671
 471 1 4.57072 71.2678 106.804
 472 1 1.43235 70.089 108.57
 473 1 198.986 69.0882 111.284
 474 1 199.727 65.4156 111.977
 475 1 1.15657 63.6047 115.058
 476 1 3.0612 61.0428 117.016
 477 1 5.99973 59.0071 115.644
 478 1 6.85117 57.2021 118.932
 479 1 9.29267 54.3134 119
 480 1 7.83012 54.5996 122.416
 481 1 7.52103 54.0821 126.253
 482 1 11.3215 54.2936 126.19
 483 1 14.2434 54.1754 128.71
 484 1 15.5932 50.8915 129.967
 485 1 14.6098 47.7219 131.764
 486 1 16.2153 44.352 130.88
 487 1 18.5452 43.5086 128.136
 488 1 19.2958 40.4594 126.049
 489 1 22.3932 39.9534 123.983
 490 1 27.6665 48.2456 65.1813
 491 1 25.5914 51.3993 65.7485
 492 1 22.0854 50.1509 66.4701
 493 1 21.4474 46.4106 66.5421
 494 1 18.9332 43.6416 65.6655
 495 1 17.2792 40.3104 64.8479
 496 1 16.2723 40.488 61.219
 497 1 14.4738 37.9361 59.077
 498 1 13.6686 38.1234 55.3565
 499 1 16.8622 38.5685 53.4043
 500 1 16.8961 41.059 50.5979
 501 1 18.4187 42.9498 47.6344
 502 1 15.4497 45.1473 47.0271
 503 1 11.7937 46.0983 47.6336
 504 1 9.41272 44.9483 44.8575
 505 1 10.1172 47.3632 41.9579
 506 1 11.3528 50.8727 41.1305
 507 1 14.5709 50.8192 43.1876
 508 1 15.5779 54.3232 44.2126
 509 1 15.9021 56.6469 47.1194
 510 1 18.3812 55.4912 49.7897
 511 1 18.948 53.0167 52.6307
 512 1 20.8324 50.1372 50.8254
 513 1 19.346 47.7111 53.4432
 514 1 16.7804 47.1016 56.1035
 515 1 13.561 48.9767 56.0245
 516 1 11.625 51.7764 57.7249
 517 1 9.76007 51.8387 60.9457
 518 1 8.11844 55.0903 61.9419
 519 1 6.57349 55.3243 65.423
 520 1 9.43885 56.9146 67.2265
 521 1 12.3552 54.6107 67.8319
 522 1 12.0508 52.0381 70.587
 523 1 15.7644 52.9551 70.9759
 524 1 18.5561 54.8681 72.6363
 525 1 21.722 56.8844 72.3971
 526 1 20.5557 59.9919 74.2754
 527 1 22.1069 63.2267 75.5415
 528 1 20.8294 65.4775 72.7642
 529 1 24.3724 64.9321 71.3199
 530 1 25.8981 61.4921 70.7948
 531 1 28.7333 59.3412 72.1096
 532 1 31.0791 56.4632 71.3081
 533 1 34.0549 56.4395 68.9166
 534 1 37.5739 57.9473 69.0517
 535 1 38.6051 59.962 66.0212
 536 1 36.5028 63.022 67.0974
 537 1 33.6727 65.3562 66.1367
 538 1 36.1078 68.1448 66.4199
 539 1 37.3509 70.1579 63.3902
 540 1 34.3682 70.0707 61.0644
 541 1 30.6756 70.9094 61.6191
 542 1 31.4992 72.2523 65.1126
 543 1 33.2707 75.5718 65.2373
 544 1 36.5512 77.2558 66.0336
 545 1 34.8045 80.3848 67.1792
 546 1 31.4445 81.4092 65.6341
 547 1 29.4915 84.5898 66.3405
 548 1 31.7539 86.1199 63.7232
 549 1 34.6955 88.4437 64.1133
 550 1 32.0097 91.1486 63.8915
 551 1 28.8551 93.0204 62.5945
 552 1 27.0569 90.9515 60.0543
 553 1 23.6097 89.8734 59.1826
 554 1 20.2613 88.0315 58.6932
 555 1 19.7261 85.4855 55.9471
 556 1 16.0524 85.3931 57.0175
 557 1 14.2136 88.5106 55.9392
 558 1 10.7547 88.8267 54.4547
 559 1 8.38704 91.2717 56.0948
 560 1 7.50928 94.8874 55.1427
 561 1 10.9007 95.8321 53.8641
 562 1 14.2754 97.2735 52.9353
 563 1 14.4768 96.795 49.2384
 564 1 14.3672 97.0045 45.5253
 565 1 14.8653 93.3195 44.6342
 566 1 16.2834 90.7572 42.2761
 567 1 18.8888 89.4172 39.8301
 568 1 19.4921 93.1625 39.773
 569 1 18.6957 94.921 43.1203
 570 1 21.3787 93.1016 45.0937
 571 1 21.3193 89.1886 44.6212
 572 1 21.6631 87.065 47.6691
 573 1 23.4365 85.8804 50.8559
 574 1 26.4873 87.7438 52.0086
 575 1 29.9665 87.1329 50.7216
 576 1 32.7274 87.0167 53.4168
 577 1 35.9502 87.2313 51.508
 578 1 37.8628 89.1034 54.3324
 579 1 38.8585 87.0449 57.4003
 580 1 41.8395 85.8079 59.3046
 581 1 42.0341 86.1449 63.1847
 582 1 41.4052 84.6379 66.5909
 583 1 42.5469 81.3379 65.2076
 584 1 41.8603 78.8336 68.0533
 585 1 42.5395 79.3273 71.7673
 586 1 39.6762 81.2117 73.5316
 587 1 37.4076 83.641 72.0178
 588 1 37.4537 86.3027 69.2276
 589 1 36.2421 88.9767 71.5595
 590 1 36.4418 92.7899 72.0177
 591 1 38.0831 95.8603 73.5646
 592 1 38.4206 99.0637 71.5072
 593 1 41.2723 99.4372 69.0547
 594 1 44.4765 99.3791 71.1004
 595 1 46.5395 97.2329 68.7812
 596 1 46.419 93.3716 69.0506
 597 1 46.3873 91.0572 66.0955
 598 1 45.1245 91.082 62.4679
 599 1 44.4832 94.7954 61.7326
 600 1 46.5226 97.1348 59.58
 601 1 45.118 100.291 58.3102
 602 1 44.7113 102.878 55.5061
 603 1 47.4008 105.109 54.0161
 604 1 50.712 106.404 55.2628
 605 1 48.9779 109.26 57.0785
 606 1 51.1792 111.453 54.738
 607 1 54.2682 113.728 54.3423
 608 1 57.9286 112.979 53.7186
 609 1 60.9489 113.182 55.9372
 610 1 61.0558 111.725 59.3985
 611 1 61.5006 114.608 61.8833
 612 1 64.286 115.994 59.6678
 613 1 66.4759 115.943 56.5693
 614 1 70.2834 116.122 57.1544
 615 1 73.1673 114.131 55.6057
 616 1 76.6009 114.576 54.1834
 617 1 79.3553 112.418 55.5827
 618 1 82.2516 114.241 53.6034
 619 1 82.9748 118.028 53.7215
 620 1 81.2278 117.977 50.3093
 621 1 81.2119 120.284 47.3374
 622 1 82.9827 122.696 45.0519
 623 1 82.7614 126.412 44.275
 624 1 84.0133 128.065 41.0856
 625 1 87.6852 127.693 41.7605
 626 1 87.6101 124.05 40.3909
 627 1 89.828 121.502 42.0968
 628 1 88.8481 119.057 44.8304
 629 1 86.0822 116.495 44.0294
 630 1 87.1116 113.095 42.7442
 631 1 88.8727 109.872 41.8273
 632 1 89.9228 107.063 44.1498
 633 1 93.4408 107.437 42.6627
 634 1 96.2796 109.911 42.0031
 635 1 95.4989 112.832 44.2892
 636 1 97.1003 115.267 46.6288
 637 1 96.4231 117.393 49.6536
 638 1 94.6294 115.617 52.5023
 639 1 95.7135 116.828 55.9483
 640 1 99.5009 116.57 55.8914
 641 1 102.465 114.154 56.2803
 642 1 103.979 115.185 59.5879
 643 1 107.495 116.777 59.9263
 644 1 110.696 115.041 58.9862
 645 1 114.4 114.507 58.2786
 646 1 117.067 111.919 57.4404
 647 1 117.957 109.229 60.1478
 648 1 116.351 105.926 60.9224
 649 1 113.253 103.921 61.7084
 650 1 111.051 101.458 63.4242
 651 1 110.335 101.918 67.1385
 652 1 110.63 100.437 70.7226
 653 1 55.7014 101.005 74.3477
 654 1 52.55 102.936 73.6664
 655 1 50.9558 104.019 76.9472
 656 1 52.6186 106.542 79.0641
 657 1 52.8666 109.969 77.472
 658 1 52.9005 113.791 77.154
 659 1 52.9611 114.185 73.3894
 660 1 53.9778 113.846 69.7919
 661 1 54.9736 116.47 67.1436
 662 1 51.4537 116.65 65.654
 663 1 51.0798 117.566 61.988
 664 1 48.8998 120.505 61.1375
 665 1 46.3506 122.759 62.7736
 666 1 43.1763 123.931 61.1444
 667 1 40.5396 126.533 60.2999
 668 1 40.598 128.811 57.3176
 669 1 37.0779 128.463 55.9181
 670 1 36.6101 125.089 54.3978
 671 1 38.4658 121.74 54.6823
 672 1 37.2201 119.074 57.1792
 673 1 36.9989 121.756 59.9541
 674 1 34.4305 121.322 62.8222
 675 1 33.5624 121.426 66.4815
 676 1 35.2196 124.697 65.3349
 677 1 36.5081 128.316 65.1164
 678 1 35.4675 131.443 66.9558
 679 1 35.5268 130.883 70.7105
 680 1 36.8469 134.006 72.5447
 681 1 40.4203 134.011 73.7386
 682 1 42.1859 136.471 76.0034
 683 1 41.8785 139.739 73.8896
 684 1 43.6979 143.11 74.5382
 685 1 42.0452 145.299 71.8645
 686 1 40.2752 148.65 70.9629
 687 1 36.8839 149.995 72.036
 688 1 33.3998 148.686 72.7977
 689 1 32.5291 146.141 69.9953
 690 1 33.8235 145.264 66.4924
 691 1 36.9267 143.197 66.0154
 692 1 37.4633 139.539 65.1309
 693 1 39.8589 136.863 66.1905
 694 1 43.7239 137.149 66.7701
 695 1 44.3949 140.839 67.3043
 696 1 43.47 143.412 64.6501
 697 1 44.5763 146.99 64.8216
 698 1 47.233 146.758 67.6006
 699 1 49.1134 150.053 67.0768
 700 1 47.7751 152.289 69.7443
 701 1 50.0517 152.866 72.7429
 702 1 53.6522 153.586 72.2413
 703 1 53.6305 152.453 68.5695
 704 1 53.8828 154.237 65.263
 705 1 52.9039 158.067 65.361
 706 1 52.2111 161.828 65.6884
 707 1 54.4513 164.846 66.2721
 708 1 57.3666 166.083 64.1445
 709 1 60.5139 168.144 63.5006
 710 1 64.1887 167.552 63.4829
 711 1 65.8644 166.962 66.7429
 712 1 63.9049 168.74 69.5075
 713 1 61.1324 167.912 71.9018
 714 1 60.2166 164.236 71.6945
 715 1 60.3029 161.171 73.9638
 716 1 58.3633 161.814 77.1542
 717 1 55.5807 159.287 76.6595
 718 1 53.8372 157.485 79.6337
 719 1 56.8712 155.183 79.9416
 720 1 57.9805 153.204 76.8427
 721 1 58.1564 150.025 74.7419
 722 1 58.1707 146.287 74.9527
 723 1 57.9343 142.589 74.1393
 724 1 58.5056 139.434 72.3429
 725 1 60.8058 139.791 69.3766
 726 1 57.746 140.284 67.3231
 727 1 57.8754 140.932 63.5545
 728 1 56.2785 144.342 63.1006
 729 1 52.9078 145.944 63.1053
 730 1 53.0316 146.956 59.477
 731 1 56.7125 146.155 58.7008
 732 1 58.6697 148.728 60.7893
 733 1 59.8478 152.168 59.7505
 734 1 58.6844 153.424 56.3429
 735 1 55.971 155.553 54.7232
 736 1 57.2941 155.751 51.1984
 737 1 56.3418 152.042 50.427
 738 1 57.2809 150.619 47.2181
 739 1 61.1351 151.223 47.0999
 740 1 61.1457 150.572 43.3483
 741 1 59.4721 148.395 40.732
 742 1 61.2158 149.352 37.514
 743 1 64.5902 150.015 35.9937
 744 1 66.578 150.04 39.3072
 745 1 70.3025 150.346 39.9352
 746 1 72.7239 147.951 38.3508
 747 1 75.5401 148.15 35.6968
 748 1 76.954 151.378 34.4501
 749 1 75.2421 154.546 35.8043
 750 1 74.5626 158.188 35.2845
 751 1 75.5281 161.026 37.6989
 752 1 73.434 161.575 40.8824
 753 1 71.7505 158.773 42.837
 754 1 69.7496 155.725 43.9141
 755 1 70.9277 153.222 46.5046
 756 1 73.086 150.211 45.7903
 757 1 76.916 150.126 45.7525
 758 1 78.6337 148.91 48.9508
 759 1 78.6293 145.15 48.9765
 760 1 75.723 145.098 46.8119
 761 1 74.8856 144.184 43.1728
 762 1 72.5454 141.096 42.8198
 763 1 71.7167 140.672 39.0367
 764 1 71.9485 142.781 35.8433
 765 1 75.4002 142.413 34.5256
 766 1 75.8779 140.349 31.3865
 767 1 72.6068 140.902 29.5654
 768 1 73.5279 144.279 28.1173
 769 1 76.844 143.874 26.1537
 770 1 79.4008 141.745 24.2848
 771 1 79.941 138.197 25.5701
 772 1 82.686 138.566 28.2287
 773 1 84.5287 141.042 30.2619
 774 1 85.3689 139.623 33.6414
 775 1 85.1234 142.085 36.5467
 776 1 85.5759 141.29 40.2292
 777 1 83.4741 141.693 43.3983
 778 1 80.0087 140.186 42.4756
 779 1 78.6668 137.576 40.1732
 780 1 81.7074 135.624 39.056
 781 1 82.0573 133.676 35.8444
 782 1 85.5392 132.474 36.5774
 783 1 88.187 132.989 33.9417
 784 1 90.2113 134.715 31.1276
 785 1 90.1284 133.667 27.3733
 786 1 92.1465 135.848 24.8936
 787 1 95.6241 136.902 25.9462
 788 1 96.9739 133.406 26.7062
 789 1 98.5648 131.292 29.4762
 790 1 100.352 127.958 29.9217
 791 1 99.1214 127.449 33.2996
 792 1 102.592 127.771 34.8137
 793 1 105.597 125.492 35.06
 794 1 107.827 125.647 32.0944
 795 1 110.609 122.935 32.0443
 796 1 112.542 124.238 29.0035
 797 1 115.666 124.318 26.6952
 798 1 115.137 128.145 27.3987
 799 1 116.419 129.808 24.1645
 800 1 116.941 130.981 20.5795
 801 1 113.535 132.22 19.3592
 802 1 114.116 135.928 19.0469
 803 1 114.124 136.666 22.794
 804 1 114.807 140.225 23.8256
 805 1 117.82 141.085 25.8865
 806 1 121.472 140.562 26.9834
 807 1 122.403 139.083 30.3756
 808 1 120.125 139.184 33.4453
 809 1 121.459 139.753 36.9718
 810 1 120.559 136.364 38.6371
 811 1 119.038 133.225 40.2982
 812 1 121.18 130.124 39.9449
 813 1 122.756 128.468 42.9905
 814 1 123.349 131.383 45.337
 815 1 126.864 131.316 46.5796
 816 1 74.1609 111.37 42.6515
 817 1 73.5981 115.049 43.0315
 818 1 77.3196 115.603 43.1539
 819 1 78.8788 118.201 40.7924
 820 1 76.6859 117.551 37.8344
 821 1 75.7944 116.974 34.0973
 822 1 72.6071 115.254 32.9008
 823 1 70.0425 112.829 34.2999
 824 1 69.1105 110.498 37.1498
 825 1 66.3515 107.935 37.3039
 826 1 63.9184 106.006 35.0896
 827 1 61.5521 105.624 32.2867
 828 1 60.1277 103.925 29.2152
 829 1 61.2386 100.415 29.7207
 830 1 59.533 97.0819 29.497
 831 1 61.524 94.9414 27.0767
 832 1 63.3485 96.6154 24.1719
 833 1 63.42 99.7506 22.0156
 834 1 65.5478 102.51 20.3266
 835 1 67.9123 105.354 19.8988
 836 1 65.9691 106.859 17.0799
 837 1 63.9025 109.741 18.3897
 838 1 63.2015 109.699 22.0959
 839 1 66.971 109.734 22.4628
 840 1 69.6627 112.336 23.2463
 841 1 71.7588 115.074 21.6706
 842 1 69.791 118.398 21.8239
 843 1 68.0316 119.584 25.0285
 844 1 65.0295 118.108 26.5351
 845 1 62.6123 117.726 29.3155
 846 1 60.0596 115.627 27.2607
 847 1 59.4388 115.521 23.4827
 848 1 60.987 116.24 20.1481
 849 1 60.7001 114.862 16.7137
 850 1 62.2988 115.515 13.4789
 851 1 65.9604 116.125 14.5982
 852 1 66.3741 119.377 16.5661
 853 1 66.1395 122.938 17.8335
 854 1 69.1699 123.673 15.6496
 855 1 70.5428 127.085 16.6851
 856 1 71.8691 126.514 20.1632
 857 1 69.3798 125.21 22.6885
 858 1 70.1389 124.674 26.3205
 859 1 72.3441 125.381 29.3079
 860 1 72.7469 123.366 32.4612
 861 1 72.0488 122.601 35.9591
 862 1 71.8131 119.645 38.2852
 863 1 71.9397 122.089 41.2825
 864 1 68.4895 122.663 42.8394
 865 1 65.7234 123.919 45.0479
 866 1 67.354 121.575 47.5925
 867 1 67.4438 118.184 45.7704
 868 1 66.2944 117.038 49.2419
 869 1 64.8862 119.154 52.1602
 870 1 62.1474 121.766 52.3418
 871 1 63.4612 124.552 54.3531
 872 1 62.0264 124.868 57.8999
 873 1 60.0989 122.944 60.5198
 874 1 56.4457 123.603 60.782
 875 1 55.245 125.109 64.0869
 876 1 55.0424 128.583 62.4408
 877 1 57.3213 128.681 59.4193
 878 1 56.922 130.929 56.3242
 879 1 53.943 133.125 55.5008
 880 1 52.0225 136.223 54.5433
 881 1 49.7432 138.748 52.8546
 882 1 50.2125 141.276 50.1753
 883 1 47.9153 142.666 47.4883
 884 1 49.6185 146.054 48.1874
 885 1 53.4362 146.027 48.7263
 886 1 56.0084 143.165 48.9053
 887 1 57.9219 142.167 45.8045
 888 1 58.463 138.933 43.8662
 889 1 56.671 136.614 46.353
 890 1 52.9635 136.868 46.8431
 891 1 49.2316 137.015 46.0077
 892 1 46.5521 136.196 48.5077
 893 1 44.563 133.224 49.5302
 894 1 42.4092 135.386 51.85
 895 1 44.9012 136.465 54.5659
 896 1 46.412 133.294 56.0508
 897 1 47.8393 129.718 56.0861
 898 1 48.1921 129.189 52.3107
 899 1 46.8945 128.242 48.8833
 900 1 46.2272 125.825 46.1834
 901 1 45.7535 125.814 42.3761
 902 1 42.6218 124.802 40.5356
 903 1 42.0106 122.502 37.532
 904 1 40.5095 119.101 36.6072
 905 1 38.5472 117.135 39.2042
 906 1 38.0985 114.655 41.9052
 907 1 41.858 114.817 42.2766
 908 1 45.4556 116.256 42.0359
 909 1 47.5672 119.203 41.0339
 910 1 50.8606 119.488 43.1537
 911 1 50.0263 117.067 46.0644
 912 1 51.6868 113.751 46.8913
 913 1 50.3069 110.97 44.742
 914 1 49.7183 108.082 42.3026
 915 1 52.5278 106.397 40.4478
 916 1 53.2352 102.654 41.0078
 917 1 55.6263 99.7959 40.1949
 918 1 57.1721 100.403 36.8391
 919 1 59.578 97.44 36.4652
 920 1 61.5791 94.1588 36.3081
 921 1 61.3815 92.4329 32.9186
 922 1 60.8902 88.6423 32.6038
 923 1 57.022 88.6505 32.6224
 924 1 55.9758 91.2572 30.152
 925 1 55.6654 93.6963 33.0825
 926 1 52.3115 95.4564 32.5859
 927 1 49.7528 97.3298 34.6526
 928 1 49.8973 100.34 32.2751
 929 1 51.0532 103.927 31.5432
 930 1 51.1205 107.094 29.4531
 931 1 48.9101 109.173 31.8036
 932 1 51.1763 111.216 34.1303
 933 1 54.3888 112.129 35.9546
 934 1 56.7178 114.166 38.1398
 935 1 59.8857 116.124 37.2877
 936 1 62.5434 116.836 40.0538
 937 1 60.6176 116.702 43.3937
 938 1 59.0969 120.15 42.8317
 939 1 56.7174 123.124 42.2897
 940 1 58.6726 125.535 40.1655
 941 1 57.9817 125.619 36.42
 942 1 58.2386 129.479 36.8358
 943 1 56.8715 132.771 36.001
 944 1 57.7476 133.544 32.4383
 945 1 60.8093 131.702 31.205
 946 1 59.6928 131.728 27.6103
 947 1 60.9759 128.287 26.472
 948 1 60.9563 126.424 23.2188
 949 1 59.1675 125.06 20.1009
 950 1 60.4809 123.646 16.7334
 951 1 57.3257 124.442 14.7649
 952 1 59.733 127.229 13.7845
 953 1 61.9918 127.101 10.769
 954 1 64.7598 124.593 10.015
 955 1 64.991 121.739 7.36068
 956 1 68.5013 121.56 6.23729
 957 1 69.6801 118.923 3.70316
 958 1 71.7065 117.203 1.05095
 959 1 73.3873 115.373 1998.12
 960 1 77.1273 114.884 1998.61
 961 1 78.9578 115.719 1.88938
 962 1 78.6814 113.4 4.85369
 963 1 75.7192 111.604 6.43073
 964 1 73.0471 109.95 4.2956
 965 1 71.4642 106.944 5.90619
 966 1 70.8761 103.183 5.37218
 967 1 69.5306 99.699 4.90893
 968 1 68.4891 98.2787 8.31601
 969 1 70.7435 98.855 11.2454
 970 1 70.1349 100.087 14.7898
 971 1 70.707 103.826 14.4652
 972 1 73.0284 104.224 11.4489
 973 1 74.561 106.981 13.6561
 974 1 76.6788 110.096 13.8573
 975 1 78.0017 113.649 13.9271
 976 1 77.6065 117.368 13.6333